LAMMPS data file for 500w_25h202_5pnp_sci_npt_100ps2 (force field SciPCFF.frc+ )

1824  atoms
1422  bonds
1482  angles
2683  dihedrals
35  impropers

10  atom types
9  bond types
11  angle types
14  dihedral types
4  improper types

16.724545 43.275455 xlo xhi
16.724545 43.275455 ylo yhi
16.724545 43.275455 zlo zhi

Masses

    1     55.847   # Fe
    8    12.0112   # C
    3    15.9994   # O
    4    1.00797   # H
    7    14.0067   # N
    5    15.9994   # O
    9    1.00797   # H
    2    15.9994   # O
    6    1.00797   # H
   10    15.9994   # O

Atoms

    1 1   1     0.000441611842     27.868128520   31.325263935   25.168757520
    2 1   2    -0.805058388158     27.480190303   32.525008214   26.540487176
    3 1   1     1.074441611842     29.596030198   31.017489258   28.112929298
    4 1   2    -1.073558388158     29.424066652   30.989318936   26.209410972
    5 1   2    -0.805058388158     28.798897386   28.241920082   25.661606018
    6 1   2    -0.805058388158     32.185707142   31.707530733   26.435674528
    7 1   1     0.805941611842     30.750362130   31.878782664   25.197654421
    8 1   1     0.805941611842     29.821463492   29.675397382   24.902979862
    9 1   2    -0.805058388158     31.317821822   28.774131791   25.657283100
   10 1   2    -0.805058388158     26.915592260   30.560562498   26.629012537
   11 1   2    -0.805058388158     30.476700161   33.262515705   26.454010733
   12 1   1     0.537441611842     28.366616450   25.721510324   26.410603532
   13 1   2    -0.536558388158     26.721451037   26.066589667   27.387432703
   14 1   1     0.537441611842     25.518883764   25.854941682   31.227210709
   15 1   2    -0.536558388158     25.603256244   26.597059416   29.412959403
   16 1   1     0.805941611842     27.237435946   28.668229359   26.636310305
   17 1   1     0.537441611842     24.699813348   29.639921466   27.994897152
   18 1   2    -1.073558388158     28.282869317   26.866157935   30.235588204
   19 1   1     1.611441611842     27.256440559   27.341245026   28.708508329
   20 1   2    -1.073558388158     28.908512958   29.029349319   29.716693185
   21 1   2    -0.536558388158     25.395322640   27.857694492   28.454473258
   22 1   2    -1.073558388158     26.286101962   28.059962676   30.120806662
   23 1   2    -1.073558388158     27.849982953   29.056934009   28.373987464
   24 1   1     0.537441611842     31.250048304   34.924555672   28.524046967
   25 1   2    -0.536558388158     29.524957548   35.073652353   29.500305581
   26 1   1     0.805941611842     28.781418532   33.744781753   27.200108453
   27 1   1     0.537441611842     29.031497783   34.861681626   33.857463123
   28 1   2    -0.536558388158     28.857102536   35.359863223   31.953970511
   29 1   2    -1.073558388158     28.162432005   32.205585462   31.135993137
   30 1   1     1.611441611842     28.376890140   33.953202112   30.669462708
   31 1   1     0.537441611842     25.808005027   33.600497331   28.419891847
   32 1   2    -1.073558388158     29.169882565   31.299471162   30.808575901
   33 1   2    -1.073558388158     30.185865745   33.341589898   30.578231658
   34 1   2    -0.536558388158     27.285802898   34.637235043   29.198672533
   35 1   2    -1.073558388158     29.205224482   33.367055815   29.070904853
   36 1   1     0.805941611842     24.624870389   31.553101867   32.238431244
   37 1   1     1.074441611842     27.170298699   29.830244817   31.493922515
   38 1   2    -1.073558388158     26.017557165   30.461930312   32.853548954
   39 1   1     0.805941611842     24.520258752   28.620061433   30.808887285
   40 1   2    -0.805058388158     24.383457405   30.537660585   30.680699315
   41 1   1     0.805941611842     26.871402005   33.518409098   31.678887296
   42 1   1     1.611441611842     28.324603445   31.754861349   29.298931868
   43 1   2    -1.073558388158     26.400254442   30.197312486   28.517846900
   44 1   1     1.611441611842     27.262515131   29.642967243   30.049779670
   45 1   2    -0.805058388158     26.910086020   31.418219835   35.078370667
   46 1   1     1.342941611842     27.517096128   31.568996169   28.102588886
   47 1   2    -1.073558388158     27.706052931   31.287362933   30.894776224
   48 1   1     0.805941611842     25.701117137   32.048125209   33.767559574
   49 1   1     0.805941611842     24.771762345   29.472227885   33.861184367
   50 1   1     1.342941611842     26.135028089   30.691994465   30.220491833
   51 1   2    -1.073558388158     28.281446392   30.014587958   28.602971586
   52 1   2    -0.805058388158     26.559246997   28.979245193   33.732081106
   53 1   2    -0.805058388158     25.601956957   32.366660059   30.830309874
   54 1   2    -1.073558388158     26.583019435   32.283897411   29.482379077
   55 1   2    -0.805058388158     25.337442360   28.433636037   32.459064631
   56 1   2    -0.805058388158     27.307424366   32.886494803   33.427607352
   57 1   1     1.611441611842     33.253033868   28.535375563   28.622245963
   58 1   2    -1.073558388158     33.802531336   29.817269659   29.857711147
   59 1   1     0.537441611842     35.380070213   27.980905700   31.316864900
   60 1   2    -1.073558388158     31.305535785   29.705096570   29.621254342
   61 1   2    -0.536558388158     35.010864170   28.585645923   29.476416940
   62 1   1     0.537441611842     34.685896187   31.513172711   27.571054934
   63 1   1     0.805941611842     32.673311629   29.862925465   26.357688739
   64 1   2    -0.536558388158     34.742814515   29.728607773   28.348344389
   65 1   1     0.537441611842     32.791784942   26.626535289   26.408085016
   66 1   2    -1.073558388158     32.085211991   29.904118696   28.107294649
   67 1   2    -1.073558388158     32.416447193   27.803133063   30.122424093
   68 1   2    -0.536558388158     34.208239781   27.676297198   27.229075198
   69 1   1     0.805941611842     30.937624866   24.226122316   29.757950110
   70 1   1     0.805941611842     29.799184204   23.976535967   31.809139932
   71 1   1     1.611441611842     31.646487048   28.219382005   28.599871769
   72 1   2    -0.805058388158     29.564034515   25.267635825   33.120587793
   73 1   1     1.342941611842     30.566830597   26.339719362   28.853311726
   74 1   2    -1.073558388158     29.949237715   29.097581097   28.529643297
   75 1   2    -1.073558388158     29.679604124   26.832612744   27.296099305
   76 1   1     0.805941611842     33.441812351   26.342960821   29.563953475
   77 1   1     1.074441611842     30.440566815   27.164150285   31.653068341
   78 1   1     0.805941611842     27.872874809   25.103328447   29.643268394
   79 1   1     0.805941611842     32.495311815   24.570675135   31.725064127
   80 1   2    -1.073558388158     30.902465402   25.374296271   31.237223701
   81 1   1     1.611441611842     28.811074995   27.560475550   28.719427060
   82 1   2    -1.073558388158     31.122935141   27.138034131   27.247181601
   83 1   2    -0.805058388158     29.494584211   24.883458701   28.691011331
   84 1   2    -0.805058388158     28.728259191   25.394189030   31.255301720
   85 1   2    -0.805058388158     32.080052354   25.334206691   28.701189242
   86 1   2    -0.805058388158     32.482756620   25.568575315   33.314376446
   87 1   1     1.342941611842     30.039557642   28.615681262   26.918877771
   88 1   2    -1.073558388158     30.298973594   27.705932476   29.803562092
   89 1   2    -0.805058388158     33.376585194   26.205446742   31.477272661
   90 1   1     0.805941611842     34.070225124   33.794631012   32.058828653
   91 1   1     0.805941611842     33.064564151   33.037568046   33.993457631
   92 1   1     0.805941611842     35.128290842   30.952716071   30.721485068
   93 1   2    -0.805058388158     34.527878125   32.751283231   30.564340458
   94 1   1     1.611441611842     30.117934897   31.833481291   29.399959265
   95 1   2    -0.805058388158     33.524057072   29.950136570   34.138233312
   96 1   1     0.805941611842     31.311094865   34.664216752   31.549166564
   97 1   1     0.805941611842     34.315430223   31.626880994   33.928356360
   98 1   1     1.074441611842     31.678310110   31.938422580   32.085682029
   99 1   2    -0.805058388158     32.852983932   34.087456045   30.625902265
  100 1   1     1.611441611842     32.644545215   31.023915130   29.426761640
  101 1   2    -1.073558388158     31.318954122   33.270167767   29.436389111
  102 1   2    -0.805058388158     31.593781622   34.101890295   33.395140177
  103 1   1     1.342941611842     32.925670326   32.429453384   29.754763960
  104 1   2    -1.073558388158     31.245393232   30.638714933   28.379153708
  105 1   2    -0.805058388158     31.483340116   32.244693812   34.682838005
  106 1   2    -1.073558388158     33.404526918   32.089475442   32.377465926
  107 1   2    -1.073558388158     32.970040673   32.255249792   28.020672807
  108 1   2    -0.805058388158     35.102337747   30.506315546   32.598105437
  109 1   1     1.342941611842     31.136456465   32.283330393   27.858275910
  110 1   2    -1.073558388158     31.510561298   31.723995049   30.435772984
  111 1   1     1.074441611842     29.972798907   29.820026859   30.804739663
  112 1   1     1.611441611842     30.621853136   29.154110697   35.114678266
  113 1   2    -1.073558388158     30.225612340   29.767656694   32.457368809
  114 1   1     0.537441611842     33.527232504   27.441555211   35.002251404
  115 1   2    -0.536558388158     31.793339143   27.779731593   35.845062298
  116 1   1     0.805941611842     30.872486854   25.891818256   34.300920760
  117 1   1     1.342941611842     30.494235037   32.601740609   33.095836916
  118 1   1     1.611441611842     29.143597068   30.519635220   33.637090423
  119 1   2    -1.073558388158     28.731869138   33.083160052   33.295842754
  120 1   2    -1.073558388158     28.294504459   31.216492938   32.144571302
  121 1   2    -1.073558388158     30.122978980   27.667589113   34.067022647
  122 1   1     0.805941611842     31.976499297   30.433374357   35.139616467
  123 1   1     1.342941611842     26.621887702   27.228653203   33.081446481
  124 1   1     0.537441611842     29.276985643   32.015204212   36.363440122
  125 1   1     1.342941611842     33.543211439   29.558437597   32.326821613
  126 1   2    -1.073558388158     31.802828498   27.816138581   30.994434026
  127 1   1     0.805941611842     27.416961997   29.552159258   35.237714559
  128 1   1     1.342941611842     32.257436579   27.238592980   32.607640590
  129 1   1     1.611441611842     32.465738071   29.464562357   30.969596996
  130 1   2    -1.073558388158     32.813735847   28.565690565   33.667674889
  131 1   2    -0.536558388158     29.626288683   30.076344608   36.536400280
  132 1   1     0.537441611842     28.123498011   26.526192855   35.241082903
  133 1   1     1.342941611842     28.296392521   31.359549397   33.896305648
  134 1   2    -1.073558388158     30.736076595   30.814322574   32.854573703
  135 1   1     1.611441611842     31.210830550   28.319286070   32.731049192
  136 1   2    -1.073558388158     28.965741056   28.836523568   34.200248214
  137 1   2    -1.073558388158     33.505371339   27.990371239   31.454266495
  138 1   1     1.342941611842     27.896219569   26.072070895   32.814771583
  139 1   2    -1.073558388158     27.720985597   28.740585446   32.784210505
  140 1   1     1.611441611842     29.402716133   28.213798743   32.434292437
  141 1   2    -1.073558388158     27.136595201   26.874803839   31.338791717
  142 1   2    -1.073558388158     30.982966792   29.990187818   33.554490393
  143 1   2    -0.536558388158     29.465686747   27.787488833   35.911318029
  144 1   2    -1.073558388158     31.908537207   30.084965634   32.550735089
  145 1   2    -1.073558388158     28.721143263   26.960232534   31.332167692
  146 1   1     1.611441611842     29.806371804   32.317317596   32.054980837
  147 1   2    -1.073558388158     29.946583976   31.788146968   34.636150542
  148 1   1     1.611441611842     27.811597644   28.487318163   31.038339175
  149 1   2    -1.073558388158     28.290899242   27.657874660   33.713919105
  150 2   3    -1.047958388158     34.607237817   20.764221995   25.357097534
  151 2   4     0.524641611842     34.600075044   21.248389657   26.228184866
  152 2   4     0.524641611842     34.698711159   21.564285160   24.749487456
  153 3   3    -1.047958388158     30.607711439   17.488955829   34.131008727
  154 3   4     0.524641611842     31.181182378   17.235731533   34.911743983
  155 3   4     0.524641611842     31.071457884   18.343344314   33.869919332
  156 4   3    -1.047958388158     34.506527695   17.109085362   33.346038140
  157 4   4     0.524641611842     35.478026355   17.356229440   33.214196679
  158 4   4     0.524641611842     34.457024993   43.020316347   32.573058293
  159 5   3    -1.047958388158     40.476777953   18.961695719   37.315404876
  160 5   4     0.524641611842     41.421274809   18.929209427   36.974739751
  161 5   4     0.524641611842     40.175362017   18.067945044   36.980876422
  162 6   3    -1.047958388158     39.679801559   43.058171121   35.986384473
  163 6   4     0.524641611842     38.684473315   43.003653532   36.136977076
  164 6   4     0.524641611842     39.945542560   42.155199565   36.345263813
  165 7   3    -1.047958388158     23.418238142   16.854101096   19.575750095
  166 7   4     0.524641611842     22.839047981   17.130339329   18.799187650
  167 7   4     0.524641611842     24.181044660   43.028728153   19.032154461
  168 8   3    -1.047958388158     40.025197649   24.480610652   27.364646985
  169 8   4     0.524641611842     39.682728086   25.244859678   27.914366389
  170 8   4     0.524641611842     40.898370426   24.325118069   27.827518751
  171 9   3    -1.047958388158     20.589941886   20.969731253   39.455684607
  172 9   4     0.524641611842     21.353689329   21.094370916   38.815564594
  173 9   4     0.524641611842     20.528117860   21.918097410   39.780167942
  174 10   3    -1.047958388158     39.607518855   23.938445816   23.864397825
  175 10   4     0.524641611842     40.135311088   23.226155363   23.384561362
  176 10   4     0.524641611842     39.203176592   23.323034101   24.548945306
  177 11   3    -1.047958388158     27.596621266   35.821770906   18.446134135
  178 11   4     0.524641611842     26.724482579   36.323149976   18.457478380
  179 11   4     0.524641611842     27.360387021   35.187135118   19.182250087
  180 12   3    -1.047958388158     38.931960501   37.286176888   38.453942886
  181 12   4     0.524641611842     38.970353387   38.080651938   37.841610093
  182 12   4     0.524641611842     39.913762342   37.224018470   38.647227987
  183 13   3    -1.047958388158     21.299159309   42.470383243   27.464263291
  184 13   4     0.524641611842     20.447770538   42.410801160   26.941582374
  185 13   4     0.524641611842     21.923408717   42.057329512   26.788287928
  186 14   3    -1.047958388158     22.265126465   34.503225856   27.138168227
  187 14   4     0.524641611842     22.519715341   33.960476939   26.334489983
  188 14   4     0.524641611842     21.573630029   33.882464807   27.509373110
  189 15   3    -1.047958388158     20.201797087   42.060006751   19.373965358
  190 15   4     0.524641611842     19.922091598   42.982015365   19.646717555
  191 15   4     0.524641611842     19.406926290   41.543328343   19.705147961
  192 16   3    -1.047958388158     42.682642565   32.967834890   21.117002145
  193 16   4     0.524641611842     42.478807544   33.632219924   20.397170840
  194 16   4     0.524641611842     42.886094392   32.180036116   20.524730532
  195 17   3    -1.047958388158     22.655188983   32.471274048   21.474551780
  196 17   4     0.524641611842     23.621201394   32.722375522   21.367366002
  197 17   4     0.524641611842     22.497599853   31.990947785   20.609133210
  198 18   3    -1.047958388158     41.334159106   32.027802141   17.437178495
  199 18   4     0.524641611842     40.663610751   31.283616661   17.353972916
  200 18   4     0.524641611842     42.074226622   31.518704291   17.888897911
  201 19   3    -1.047958388158     32.289904740   16.838089975   24.534869566
  202 19   4     0.524641611842     31.396767434   43.218226881   24.107074260
  203 19   4     0.524641611842     32.426477001   17.787070084   24.235483130
  204 20   3    -1.047958388158     38.865992015   26.853430780   28.627062185
  205 20   4     0.524641611842     38.804033805   27.675556103   28.053993354
  206 20   4     0.524641611842     37.987372403   26.468242346   28.327199601
  207 21   3    -1.047958388158     40.762665834   23.056364150   30.225726387
  208 21   4     0.524641611842     41.382264181   22.677299710   30.921698018
  209 21   4     0.524641611842     41.422062921   23.630330933   29.737623249
  210 22   3    -1.047958388158     37.462498078   37.977774527   25.873329669
  211 22   4     0.524641611842     37.510294293   38.456353469   26.751184561
  212 22   4     0.524641611842     36.798472712   37.301724285   26.209146589
  213 23   3    -1.047958388158     22.134804715   41.873611001   21.540486329
  214 23   4     0.524641611842     21.503968786   41.845013061   20.758446149
  215 23   4     0.524641611842     22.811332818   42.477540104   21.104613883
  216 24   3    -1.047958388158     38.951425082   35.850947857   18.102274859
  217 24   4     0.524641611842     39.856184419   35.622908644   18.460026670
  218 24   4     0.524641611842     38.531141353   36.189253293   18.952648325
  219 25   3    -1.047958388158     30.250819878   42.869997333   19.040800292
  220 25   4     0.524641611842     29.863844607   41.950090783   18.988526073
  221 25   4     0.524641611842     29.378086864   16.811713937   19.071277837
  222 26   3    -1.047958388158     24.446912964   38.112578780   26.166618691
  223 26   4     0.524641611842     24.060350789   37.659897119   26.978917273
  224 26   4     0.524641611842     24.279484531   37.398661223   25.478972043
  225 27   3    -1.047958388158     40.636292924   21.034721814   17.773653029
  226 27   4     0.524641611842     41.295181003   21.216071934   18.516282467
  227 27   4     0.524641611842     40.318030290   20.163813117   18.167474823
  228 28   3    -1.047958388158     22.625027484   31.380651881   35.491275953
  229 28   4     0.524641611842     22.060366051   30.875400399   34.826122941
  230 28   4     0.524641611842     22.793950857   30.575910119   36.063327014
  231 29   3    -1.047958388158     31.205414067   39.293063991   32.786328695
  232 29   4     0.524641611842     30.237387141   39.113049307   32.961978597
  233 29   4     0.524641611842     31.122138418   40.270546212   32.575127629
  234 30   3    -1.047958388158     40.003086088   21.137164174   35.656123067
  235 30   4     0.524641611842     39.956340359   20.260754963   35.161712990
  236 30   4     0.524641611842     40.215560826   20.749204816   36.560374185
  237 31   3    -1.047958388158     20.607993414   31.168573495   25.707496843
  238 31   4     0.524641611842     20.296490659   30.217349058   25.636731151
  239 31   4     0.524641611842     21.322618719   31.099791452   25.005691263
  240 32   3    -1.047958388158     40.551660161   33.438730989   33.390390752
  241 32   4     0.524641611842     41.424303694   33.769313203   33.769781502
  242 32   4     0.524641611842     40.560498524   32.545377711   33.849430737
  243 33   3    -1.047958388158     42.611607134   19.952179308   19.172093591
  244 33   4     0.524641611842     43.250456328   19.907978246   19.954836862
  245 33   4     0.524641611842     42.353510608   18.974274417   19.226266125
  246 34   3    -1.047958388158     43.013400913   33.633204089   25.652482567
  247 34   4     0.524641611842     42.590220326   34.259389845   24.990457450
  248 34   4     0.524641611842     17.318947908   33.508916192   25.147228761
  249 35   3    -1.047958388158     41.901216136   35.573684332   23.869030956
  250 35   4     0.524641611842     41.147183428   36.084315632   24.291058596
  251 35   4     0.524641611842     41.516438814   35.478786466   22.951704664
  252 36   3    -1.047958388158     33.118307679   19.372452883   28.900252663
  253 36   4     0.524641611842     32.378061078   19.464759688   28.226401889
  254 36   4     0.524641611842     33.776071170   18.896979141   28.304546497
  255 37   3    -1.047958388158     23.790137914   18.879408065   25.376187288
  256 37   4     0.524641611842     23.773898677   18.069218595   24.771971559
  257 37   4     0.524641611842     24.612610971   18.638824317   25.907591566
  258 38   3    -1.047958388158     28.890657718   41.805813623   37.378139967
  259 38   4     0.524641611842     28.727061148   41.959035785   36.400011476
  260 38   4     0.524641611842     29.889643479   41.768660226   37.358405455
  261 39   3    -1.047958388158     20.819296529   38.850170116   19.394717541
  262 39   4     0.524641611842     20.378459381   39.582944788   19.917672505
  263 39   4     0.524641611842     20.736382799   38.127496566   20.088816184
  264 40   3    -1.047958388158     21.387071893   37.675877720   37.704063072
  265 40   4     0.524641611842     22.211745728   38.144485692   38.032150252
  266 40   4     0.524641611842     20.737773433   38.346244627   38.084643844
  267 41   3    -1.047958388158     41.772693095   18.945747054   26.258815242
  268 41   4     0.524641611842     40.793778290   19.104792982   26.076099903
  269 41   4     0.524641611842     42.109121483   19.299046863   25.384748755
  270 42   3    -1.047958388158     34.474157706   21.810118070   40.068279397
  271 42   4     0.524641611842     33.906375733   22.197027061   40.800548006
  272 42   4     0.524641611842     35.053155007   21.251422066   40.665430583
  273 43   3    -1.047958388158     37.655428324   17.057381759   20.106235596
  274 43   4     0.524641611842     37.363104078   16.785936260   21.029976771
  275 43   4     0.524641611842     36.737333370   17.251415323   19.751494449
  276 44   3    -1.047958388158     20.373858830   39.154067426   23.143954624
  277 44   4     0.524641611842     19.841638270   39.215739255   23.996912877
  278 44   4     0.524641611842     20.209421401   38.175283361   22.962601747
  279 45   3    -1.047958388158     20.082954829   19.879946722   18.345381498
  280 45   4     0.524641611842     19.620112659   20.544585269   17.749162504
  281 45   4     0.524641611842     20.583225538   20.552416871   18.901578103
  282 46   3    -1.047958388158     42.945384091   19.425055806   35.982558866
  283 46   4     0.524641611842     17.206221219   18.873704537   36.197741431
  284 46   4     0.524641611842     16.835206794   20.305675869   36.187225668
  285 47   3    -1.047958388158     25.766445022   24.502413781   34.104607771
  286 47   4     0.524641611842     25.218027487   23.827015230   33.594221928
  287 47   4     0.524641611842     26.477317772   23.846471716   34.388957105
  288 48   3    -1.047958388158     25.090682225   37.295898487   18.203235421
  289 48   4     0.524641611842     24.223808180   37.757948823   18.427828825
  290 48   4     0.524641611842     25.244862553   37.794544956   17.340447322
  291 49   3    -1.047958388158     18.243776716   30.282770069   29.167582314
  292 49   4     0.524641611842     17.965358289   31.221907853   28.939908511
  293 49   4     0.524641611842     19.109172617   30.495059427   29.632873835
  294 50   3    -1.047958388158     42.601992266   24.830313859   28.642326502
  295 50   4     0.524641611842     16.737693283   24.723585167   27.903495715
  296 50   4     0.524641611842     43.252821754   25.060501388   29.379307726
  297 51   3    -1.047958388158     19.057362488   34.337417908   30.004804056
  298 51   4     0.524641611842     19.495146738   33.974919319   29.168351571
  299 51   4     0.524641611842     18.866926744   35.254832891   29.642036650
  300 52   3    -1.047958388158     17.121976280   28.923518638   25.964841604
  301 52   4     0.524641611842     43.207659773   29.663414604   26.457425446
  302 52   4     0.524641611842     43.153192959   28.166501319   26.360547283
  303 53   3    -1.047958388158     22.431221814   25.355028728   29.716340572
  304 53   4     0.524641611842     22.221848767   24.424062355   30.037149305
  305 53   4     0.524641611842     23.331036388   25.202264415   29.320663661
  306 54   3    -1.047958388158     31.058284020   38.323247192   20.855531053
  307 54   4     0.524641611842     31.020799572   38.069622219   19.885244309
  308 54   4     0.524641611842     30.158962817   38.770341944   20.859848359
  309 55   3    -1.047958388158     25.767942686   38.534732544   23.249676592
  310 55   4     0.524641611842     24.812110954   38.841691984   23.256191857
  311 55   4     0.524641611842     25.578500762   37.552802566   23.361452725
  312 56   3    -1.047958388158     16.929791181   32.815146686   28.905946544
  313 56   4     0.524641611842     42.717002744   33.151108089   29.470791445
  314 56   4     0.524641611842     17.499700199   33.636956810   28.910282865
  315 57   3    -1.047958388158     27.137434896   19.327418524   38.156524072
  316 57   4     0.524641611842     26.604761228   19.959689856   37.593562383
  317 57   4     0.524641611842     27.961622673   19.318947244   37.581595582
  318 58   3    -1.047958388158     37.188368615   17.222012216   34.632903005
  319 58   4     0.524641611842     36.880481264   18.165469305   34.807866341
  320 58   4     0.524641611842     36.752948284   16.810643982   35.441873671
  321 59   3    -1.047958388158     24.069499574   23.948483050   36.393598008
  322 59   4     0.524641611842     24.634036401   24.404306848   35.706627979
  323 59   4     0.524641611842     24.780749832   23.590034723   37.010058631
  324 60   3    -1.047958388158     39.807285539   28.519925439   25.010942512
  325 60   4     0.524641611842     40.385942197   27.710666442   25.133276126
  326 60   4     0.524641611842     39.000467448   28.199806848   25.513668915
  327 61   3    -1.047958388158     37.107690995   28.786716182   17.355622259
  328 61   4     0.524641611842     36.887939412   28.048603581   18.004948434
  329 61   4     0.524641611842     36.485634286   28.490898741   43.186855102
  330 62   3    -1.047958388158     31.634429495   17.448347548   27.273933860
  331 62   4     0.524641611842     32.054973018   17.087099555   26.438491696
  332 62   4     0.524641611842     31.114231885   18.204761637   26.876508219
  333 63   3    -1.047958388158     23.954590419   20.227965759   28.824602971
  334 63   4     0.524641611842     24.935835088   20.009768139   28.902729106
  335 63   4     0.524641611842     23.619761367   19.318669067   28.569547459
  336 64   3    -1.047958388158     35.387087224   22.821480081   23.473689170
  337 64   4     0.524641611842     35.797352097   23.720504950   23.664147906
  338 64   4     0.524641611842     34.857299894   23.070894626   22.654890450
  339 65   3    -1.047958388158     33.730315569   38.855241403   31.498345264
  340 65   4     0.524641611842     32.870204427   38.790627361   32.013535616
  341 65   4     0.524641611842     33.681723220   39.833753368   31.280982251
  342 66   3    -1.047958388158     20.489012182   20.940817429   33.894484530
  343 66   4     0.524641611842     20.434293067   19.953860921   33.702569398
  344 66   4     0.524641611842     20.971502813   20.889783045   34.773919848
  345 67   3    -1.047958388158     34.841474971   34.387587571   23.907884081
  346 67   4     0.524641611842     35.721910137   34.872182502   23.978326129
  347 67   4     0.524641611842     34.490842432   34.677466066   24.805813040
  348 68   3    -1.047958388158     40.281001647   18.913773856   21.973843431
  349 68   4     0.524641611842     39.859840941   18.008634581   22.100335616
  350 68   4     0.524641611842     41.153641618   18.706603203   22.419707970
  351 69   3    -1.047958388158     36.476609196   17.691766525   40.394564492
  352 69   4     0.524641611842     36.017795331   18.536963341   40.687487587
  353 69   4     0.524641611842     37.300146312   18.140811487   40.025349985
  354 70   3    -1.047958388158     21.139042413   33.676337977   34.316137443
  355 70   4     0.524641611842     21.436398430   32.726200138   34.460957060
  356 70   4     0.524641611842     20.262831146   33.664223482   34.809932297
  357 71   3    -1.047958388158     39.801288503   20.361464008   29.741392860
  358 71   4     0.524641611842     40.766801081   20.204480051   29.507726363
  359 71   4     0.524641611842     39.851701259   21.355393855   29.870598430
  360 72   3    -1.047958388158     20.219360372   26.503157447   21.189095872
  361 72   4     0.524641611842     20.503718331   26.037873860   22.035961038
  362 72   4     0.524641611842     19.892377195   27.326507428   21.661515998
  363 73   3    -1.047958388158     23.723371382   33.575986101   42.758281796
  364 73   4     0.524641611842     23.234595129   32.944562212   42.179619099
  365 73   4     0.524641611842     23.974844822   34.249299254   42.060305767
  366 74   3    -1.047958388158     43.014616695   30.519140839   23.622665205
  367 74   4     0.524641611842     42.824181071   29.747928067   23.009552571
  368 74   4     0.524641611842     16.875679326   29.976840807   24.362506044
  369 75   3    -1.047958388158     21.074866753   27.626618789   30.259718549
  370 75   4     0.524641611842     21.253252740   26.841363471   29.654228781
  371 75   4     0.524641611842     21.699401335   27.276986900   30.979052586
  372 76   3    -1.047958388158     43.188617924   30.784229086   19.239814488
  373 76   4     0.524641611842     17.545826295   30.388034845   19.409881564
  374 76   4     0.524641611842     42.670371186   29.940551058   19.412298991